/*--------------------------------*- C++ -*----------------------------------*\
| =========                 |                                                 |
| \\      /  F ield         | OpenFOAM: The Open Source CFD Toolbox           |
|  \\    /   O peration     | Version:  2406                                  |
|   \\  /    A nd           | Website:  www.openfoam.com                      |
|    \\/     M anipulation  |                                                 |
\*---------------------------------------------------------------------------*/
FoamFile
{
    version     2.0;
    format      ascii;
    arch        "LSB;label=32;scalar=64";
    note        "persistent data for third-party mesh <-> OpenFOAM translation";
    class       IOMap<dictionary>;
    location    "constant";
    object      boundaryRegion;
}
// * * * * * * * * * * * * * * * * * * * * * * * * * * * * * * * * * * * * * //


6
(
1 
{
    BoundaryType    pressure;
    Label           outlet;
    BoundaryIndex   1;
    size            140;
}

2 
{
    BoundaryType    symmetryplane;
    Label           symmetry;
    BoundaryIndex   2;
    size            6696;
}

3 
{
    BoundaryType    inlet;
    Label           inlet;
    BoundaryIndex   3;
    size            140;
}

4 
{
    BoundaryType    wall;
    Label           wall;
    BoundaryIndex   4;
    size            3938;
}

5 
{
    BoundaryType    wall;
    Label           optSurface;
    BoundaryIndex   5;
    size            10300;
}

6 
{
    BoundaryType    wall;
    Label           body;
    BoundaryIndex   6;
    size            40292;
}

)

// ************************************************************************* //
