/*--------------------------------*- C++ -*----------------------------------*\
| =========                 |                                                 |
| \\      /  F ield         | OpenFOAM: The Open Source CFD Toolbox           |
|  \\    /   O peration     | Version:  2406                                  |
|   \\  /    A nd           | Website:  www.openfoam.com                      |
|    \\/     M anipulation  |                                                 |
\*---------------------------------------------------------------------------*/
FoamFile
{
    version     2.0;
    format      ascii;
    arch        "LSB;label=32;scalar=64";
    note        "persistent data for third-party mesh <-> OpenFOAM translation";
    class       IOMap<dictionary>;
    location    "constant";
    object      cellTable;
}
// * * * * * * * * * * * * * * * * * * * * * * * * * * * * * * * * * * * * * //


1
(
1 
{
    Label           Region;
    MaterialType    fluid;
    MaterialId      1;
    GroupId         1;
}

)

// ************************************************************************* //
